{
    "H": {
        "name": "Hydrogen",
        "symbol": "H",
        "atomic_number": 1,
        "atomic_mass": 1.008,
        "electron_configuration": "1s1",
        "phase": "Gas",
        "category": "Nonmetal",
        "density": 0.00008988,
        "melting_point": 14.01,
        "boiling_point": 20.28,
        "discovery_year": 1766,
        "uses": "Used in the production of ammonia, as a fuel in rockets, and in hydrogenation of fats and oils."
    },
    "He": {
        "name": "Helium",
        "symbol": "He",
        "atomic_number": 2,
        "atomic_mass": 4.002602,
        "electron_configuration": "1s2",
        "phase": "Gas",
        "category": "Noble Gas",
        "density": 0.0001786,
        "melting_point": 0.95,
        "boiling_point": 4.22,
        "discovery_year": 1868,
        "uses": "Used in balloons, deep-sea diving, and cryogenics."
    },
    "Li": {
        "name": "Lithium",
        "symbol": "Li",
        "atomic_number": 3,
        "atomic_mass": 6.94,
        "electron_configuration": "[He] 2s1",
        "phase": "Solid",
        "category": "Alkali Metal",
        "density": 0.534,
        "melting_point": 453.69,
        "boiling_point": 1603,
        "discovery_year": 1817,
        "uses": "Used in batteries, lubricants, and mood-stabilizing drugs."
    },
    "Be": {
        "name": "Beryllium",
        "symbol": "Be",
        "atomic_number": 4,
        "atomic_mass": 9.0122,
        "electron_configuration": "[He] 2s2",
        "phase": "Solid",
        "category": "Alkaline Earth Metal",
        "density": 1.85,
        "melting_point": 1560,
        "boiling_point": 2742,
        "discovery_year": 1798,
        "uses": "Used in aerospace material, X-ray windows, and gemstones."
    },
    "B": {
        "name": "Boron",
        "symbol": "B",
        "atomic_number": 5,
        "atomic_mass": 10.81,
        "electron_configuration": "[He] 2s2 2p1",
        "phase": "Solid",
        "category": "Metalloid",
        "density": 2.34,
        "melting_point": 2349,
        "boiling_point": 4200,
        "discovery_year": 1808,
        "uses": "Used in glassmaking, detergents, and as a semiconductor."
    },
    "C": {
        "name": "Carbon",
        "symbol": "C",
        "atomic_number": 6,
        "atomic_mass": 12.011,
        "electron_configuration": "[He] 2s2 2p2",
        "phase": "Solid",
        "category": "Nonmetal",
        "density": 2.267,
        "melting_point": 3800,
        "boiling_point": 4300,
        "discovery_year": "Ancient",
        "uses": "Used in steelmaking, as a fuel, and in organic chemistry."
    },
    "N": {
        "name": "Nitrogen",
        "symbol": "N",
        "atomic_number": 7,
        "atomic_mass": 14.007,
        "electron_configuration": "[He] 2s2 2p3",
        "phase": "Gas",
        "category": "Nonmetal",
        "density": 0.0012506,
        "melting_point": 63.15,
        "boiling_point": 77.36,
        "discovery_year": 1772,
        "uses": "Used in fertilizers, explosives, and as a refrigerant."
    },
    "O": {
        "name": "Oxygen",
        "symbol": "O",
        "atomic_number": 8,
        "atomic_mass": 15.999,
        "electron_configuration": "[He] 2s2 2p4",
        "phase": "Gas",
        "category": "Nonmetal",
        "density": 0.001429,
        "melting_point": 54.36,
        "boiling_point": 90.20,
        "discovery_year": 1774,
        "uses": "Used in respiration, combustion, and water treatment."
    },
    "F": {
        "name": "Fluorine",
        "symbol": "F",
        "atomic_number": 9,
        "atomic_mass": 18.998,
        "electron_configuration": "[He] 2s2 2p5",
        "phase": "Gas",
        "category": "Halogen",
        "density": 0.001696,
        "melting_point": 53.48,
        "boiling_point": 85.03,
        "discovery_year": 1886,
        "uses": "Used in toothpaste, refrigerants, and Teflon production."
    },
    "Ne": {
        "name": "Neon",
        "symbol": "Ne",
        "atomic_number": 10,
        "atomic_mass": 20.180,
        "electron_configuration": "[He] 2s2 2p6",
        "phase": "Gas",
        "category": "Noble Gas",
        "density": 0.0008999,
        "melting_point": 24.56,
        "boiling_point": 27.07,
        "discovery_year": 1898,
        "uses": "Used in neon signs and high-voltage indicators."
    },
    "Na": {
        "name": "Sodium",
        "symbol": "Na",
        "atomic_number": 11,
        "atomic_mass": 22.990,
        "electron_configuration": "[Ne] 3s1",
        "phase": "Solid",
        "category": "Alkali Metal",
        "density": 0.97,
        "melting_point": 370.87,
        "boiling_point": 1156,
        "discovery_year": 1807,
        "uses": "Used in table salt, baking soda, and streetlights."
    },
    "Mg": {
        "name": "Magnesium",
        "symbol": "Mg",
        "atomic_number": 12,
        "atomic_mass": 24.305,
        "electron_configuration": "[Ne] 3s2",
        "phase": "Solid",
        "category": "Alkaline Earth Metal",
        "density": 1.738,
        "melting_point": 923,
        "boiling_point": 1363,
        "discovery_year": 1755,
        "uses": "Used in aerospace, fireworks, and supplements."
    },
    "Al": {
        "name": "Aluminium",
        "symbol": "Al",
        "atomic_number": 13,
        "atomic_mass": 26.982,
        "electron_configuration": "[Ne] 3s2 3p1",
        "phase": "Solid",
        "category": "Post-Transition Metal",
        "density": 2.70,
        "melting_point": 933.47,
        "boiling_point": 2792,
        "discovery_year": 1825,
        "uses": "Used in packaging, construction, and transportation."
    },
    "Si": {
        "name": "Silicon",
        "symbol": "Si",
        "atomic_number": 14,
        "atomic_mass": 28.085,
        "electron_configuration": "[Ne] 3s2 3p2",
        "phase": "Solid",
        "category": "Metalloid",
        "density": 2.3296,
        "melting_point": 1687,
        "boiling_point": 3538,
        "discovery_year": 1824,
        "uses": "Used in electronics, glassmaking, and solar cells."
    },
    "P": {
        "name": "Phosphorus",
        "symbol": "P",
        "atomic_number": 15,
        "atomic_mass": 30.974,
        "electron_configuration": "[Ne] 3s2 3p3",
        "phase": "Solid",
        "category": "Nonmetal",
        "density": 1.82,
        "melting_point": 317.30,
        "boiling_point": 553.65,
        "discovery_year": 1669,
        "uses": "Used in fertilizers, detergents, and fireworks."
    },
    "S": {
        "name": "Sulfur",
        "symbol": "S",
        "atomic_number": 16,
        "atomic_mass": 32.06,
        "electron_configuration": "[Ne] 3s2 3p4",
        "phase": "Solid",
        "category": "Nonmetal",
        "density": 2.067,
        "melting_point": 388.36,
        "boiling_point": 717.87,
        "discovery_year": "Ancient",
        "uses": "Used in sulfuric acid production, vulcanization, and fungicides."
    },
    "Cl": {
        "name": "Chlorine",
        "symbol": "Cl",
        "atomic_number": 17,
        "atomic_mass": 35.45,
        "electron_configuration": "[Ne] 3s2 3p5",
        "phase": "Gas",
        "category": "Halogen",
        "density": 0.003214,
        "melting_point": 171.6,
        "boiling_point": 239.11,
        "discovery_year": 1774,
        "uses": "Used in water disinfection, PVC production, and bleach."
    },
    "Ar": {
        "name": "Argon",
        "symbol": "Ar",
        "atomic_number": 18,
        "atomic_mass": 39.948,
        "electron_configuration": "[Ne] 3s2 3p6",
        "phase": "Gas",
        "category": "Noble Gas",
        "density": 0.001784,
        "melting_point": 83.80,
        "boiling_point": 87.30,
        "discovery_year": 1894,
        "uses": "Used in welding, lighting, and as an inert gas."
    },
    "K": {
        "name": "Potassium",
        "symbol": "K",
        "atomic_number": 19,
        "atomic_mass": 39.098,
        "electron_configuration": "[Ar] 4s1",
        "phase": "Solid",
        "category": "Alkali Metal",
        "density": 0.862,
        "melting_point": 336.53,
        "boiling_point": 1032,
        "discovery_year": 1807,
        "uses": "Used in fertilizers, explosives, and pharmaceuticals."
    },
    "Ca": {
        "name": "Calcium",
        "symbol": "Ca",
        "atomic_number": 20,
        "atomic_mass": 40.078,
        "electron_configuration": "[Ar] 4s2",
        "phase": "Solid",
        "category": "Alkaline Earth Metal",
        "density": 1.54,
        "melting_point": 1115,
        "boiling_point": 1757,
        "discovery_year": 1808,
        "uses": "Used in construction, food, and pharmaceuticals."
    }
}
