{
    "H": {
        "name": "Hydrogen",
        "symbol": "H",
        "atomic_number": 1,
        "atomic_mass": 1.008,
        "electron_configuration": "1s1",
        "phase": "Gas",
        "category": "Nonmetal",
        "density": 0.00008988,
        "melting_point": 14.01,
        "boiling_point": 20.28,
        "discovery_year": 1766,
        "uses": "Used in the production of ammonia, as a fuel in rockets, and in hydrogenation of fats and oils."
    },
    "He": {
        "name": "Helium",
        "symbol": "He",
        "atomic_number": 2,
        "atomic_mass": 4.002602,
        "electron_configuration": "1s2",
        "phase": "Gas",
        "category": "Noble Gas",
        "density": 0.0001786,
        "melting_point": 0.95,
        "boiling_point": 4.22,
        "discovery_year": 1868,
        "uses": "Used in balloons, deep-sea diving, and cryogenics."
    },
    "Li": {
        "name": "Lithium",
        "symbol": "Li",
        "atomic_number": 3,
        "atomic_mass": 6.94,
        "electron_configuration": "[He] 2s1",
        "phase": "Solid",
        "category": "Alkali Metal",
        "density": 0.534,
        "melting_point": 453.69,
        "boiling_point": 1603,
        "discovery_year": 1817,
        "uses": "Used in batteries, lubricants, and mood-stabilizing drugs."
    },
    "Be": {
        "name": "Beryllium",
        "symbol": "Be",
        "atomic_number": 4,
        "atomic_mass": 9.0122,
        "electron_configuration": "[He] 2s2",
        "phase": "Solid",
        "category": "Alkaline Earth Metal",
        "density": 1.85,
        "melting_point": 1560,
        "boiling_point": 2742,
        "discovery_year": 1798,
        "uses": "Used in aerospace material, X-ray windows, and gemstones."
    },
    "B": {
        "name": "Boron",
        "symbol": "B",
        "atomic_number": 5,
        "atomic_mass": 10.81,
        "electron_configuration": "[He] 2s2 2p1",
        "phase": "Solid",
        "category": "Metalloid",
        "density": 2.34,
        "melting_point": 2349,
        "boiling_point": 4200,
        "discovery_year": 1808,
        "uses": "Used in glassmaking, detergents, and as a semiconductor."
    },
    "C": {
        "name": "Carbon",
        "symbol": "C",
        "atomic_number": 6,
        "atomic_mass": 12.011,
        "electron_configuration": "[He] 2s2 2p2",
        "phase": "Solid",
        "category": "Nonmetal",
        "density": 2.267,
        "melting_point": 3800,
        "boiling_point": 4300,
        "discovery_year": "Ancient",
        "uses": "Used in steelmaking, as a fuel, and in organic chemistry."
    },
    "N": {
        "name": "Nitrogen",
        "symbol": "N",
        "atomic_number": 7,
        "atomic_mass": 14.007,
        "electron_configuration": "[He] 2s2 2p3",
        "phase": "Gas",
        "category": "Nonmetal",
        "density": 0.0012506,
        "melting_point": 63.15,
        "boiling_point": 77.36,
        "discovery_year": 1772,
        "uses": "Used in fertilizers, explosives, and as a refrigerant."
    },
    "O": {
        "name": "Oxygen",
        "symbol": "O",
        "atomic_number": 8,
        "atomic_mass": 15.999,
        "electron_configuration": "[He] 2s2 2p4",
        "phase": "Gas",
        "category": "Nonmetal",
        "density": 0.001429,
        "melting_point": 54.36,
        "boiling_point": 90.20,
        "discovery_year": 1774,
        "uses": "Used in respiration, combustion, and water treatment."
    },
    "F": {
        "name": "Fluorine",
        "symbol": "F",
        "atomic_number": 9,
        "atomic_mass": 18.998,
        "electron_configuration": "[He] 2s2 2p5",
        "phase": "Gas",
        "category": "Halogen",
        "density": 0.001696,
        "melting_point": 53.48,
        "boiling_point": 85.03,
        "discovery_year": 1886,
        "uses": "Used in toothpaste, refrigerants, and Teflon production."
    },
    "Ne": {
        "name": "Neon",
        "symbol": "Ne",
        "atomic_number": 10,
        "atomic_mass": 20.180,
        "electron_configuration": "[He] 2s2 2p6",
        "phase": "Gas",
        "category": "Noble Gas",
        "density": 0.0008999,
        "melting_point": 24.56,
        "boiling_point": 27.07,
        "discovery_year": 1898,
        "uses": "Used in neon signs and high-voltage indicators."
    },
    "Na": {
        "name": "Sodium",
        "symbol": "Na",
        "atomic_number": 11,
        "atomic_mass": 22.990,
        "electron_configuration": "[Ne] 3s1",
        "phase": "Solid",
        "category": "Alkali Metal",
        "density": 0.97,
        "melting_point": 370.87,
        "boiling_point": 1156,
        "discovery_year": 1807,
        "uses": "Used in table salt, baking soda, and streetlights."
    },
    "Mg": {
        "name": "Magnesium",
        "symbol": "Mg",
        "atomic_number": 12,
        "atomic_mass": 24.305,
        "electron_configuration": "[Ne] 3s2",
        "phase": "Solid",
        "category": "Alkaline Earth Metal",
        "density": 1.738,
        "melting_point": 923,
        "boiling_point": 1363,
        "discovery_year": 1755,
        "uses": "Used in aerospace, fireworks, and supplements."
    },
    "Al": {
        "name": "Aluminium",
        "symbol": "Al",
        "atomic_number": 13,
        "atomic_mass": 26.982,
        "electron_configuration": "[Ne] 3s2 3p1",
        "phase": "Solid",
        "category": "Post-Transition Metal",
        "density": 2.70,
        "melting_point": 933.47,
        "boiling_point": 2792,
        "discovery_year": 1825,
        "uses": "Used in packaging, construction, and transportation."
    },
    "Si": {
        "name": "Silicon",
        "symbol": "Si",
        "atomic_number": 14,
        "atomic_mass": 28.085,
        "electron_configuration": "[Ne] 3s2 3p2",
        "phase": "Solid",
        "category": "Metalloid",
        "density": 2.3296,
        "melting_point": 1687,
        "boiling_point": 3538,
        "discovery_year": 1824,
        "uses": "Used in electronics, glassmaking, and solar cells."
    },
    "P": {
        "name": "Phosphorus",
        "symbol": "P",
        "atomic_number": 15,
        "atomic_mass": 30.974,
        "electron_configuration": "[Ne] 3s2 3p3",
        "phase": "Solid",
        "category": "Nonmetal",
        "density": 1.82,
        "melting_point": 317.30,
        "boiling_point": 553.65,
        "discovery_year": 1669,
        "uses": "Used in fertilizers, detergents, and fireworks."
    },
    "S": {
        "name": "Sulfur",
        "symbol": "S",
        "atomic_number": 16,
        "atomic_mass": 32.06,
        "electron_configuration": "[Ne] 3s2 3p4",
        "phase": "Solid",
        "category": "Nonmetal",
        "density": 2.067,
        "melting_point": 388.36,
        "boiling_point": 717.87,
        "discovery_year": "Ancient",
        "uses": "Used in sulfuric acid production, vulcanization, and fungicides."
    },
    "Cl": {
        "name": "Chlorine",
        "symbol": "Cl",
        "atomic_number": 17,
        "atomic_mass": 35.45,
        "electron_configuration": "[Ne] 3s2 3p5",
        "phase": "Gas",
        "category": "Halogen",
        "density": 0.003214,
        "melting_point": 171.6,
        "boiling_point": 239.11,
        "discovery_year": 1774,
        "uses": "Used in water disinfection, PVC production, and bleach."
    },
    "Ar": {
        "name": "Argon",
        "symbol": "Ar",
        "atomic_number": 18,
        "atomic_mass": 39.948,
        "electron_configuration": "[Ne] 3s2 3p6",
        "phase": "Gas",
        "category": "Noble Gas",
        "density": 0.001784,
        "melting_point": 83.80,
        "boiling_point": 87.30,
        "discovery_year": 1894,
        "uses": "Used in welding, lighting, and as an inert gas."
    },
    "K": {
        "name": "Potassium",
        "symbol": "K",
        "atomic_number": 19,
        "atomic_mass": 39.098,
        "electron_configuration": "[Ar] 4s1",
        "phase": "Solid",
        "category": "Alkali Metal",
        "density": 0.862,
        "melting_point": 336.53,
        "boiling_point": 1032,
        "discovery_year": 1807,
        "uses": "Used in fertilizers, explosives, and pharmaceuticals."
    },
    "Ca": {
        "name": "Calcium",
        "symbol": "Ca",
        "atomic_number": 20,
        "atomic_mass": 40.078,
        "electron_configuration": "[Ar] 4s2",
        "phase": "Solid",
        "category": "Alkaline Earth Metal",
        "density": 1.54,
        "melting_point": 1115,
        "boiling_point": 1757,
        "discovery_year": 1808,
        "uses": "Used in construction, food, and pharmaceuticals."
    },
    "Sc": {
        "name": "Scandium",
        "symbol": "Sc",
        "atomic_number": 21,
        "atomic_mass": 44.955912,
        "electron_configuration": "[Ar] 3d1 4s2",
        "phase": "Solid",
        "category": "Transition Metal",
        "density": 2.985,
        "melting_point": 1814,
        "boiling_point": 3109,
        "discovery_year": 1879,
        "uses": "Used in aerospace components and as a trace element in aluminum alloys."
    },
    "Ti": {
        "name": "Titanium",
        "symbol": "Ti",
        "atomic_number": 22,
        "atomic_mass": 47.867,
        "electron_configuration": "[Ar] 3d2 4s2",
        "phase": "Solid",
        "category": "Transition Metal",
        "density": 4.506,
        "melting_point": 1941,
        "boiling_point": 3560,
        "discovery_year": 1791,
        "uses": "Used in aircraft, spacecraft, and medical devices."
    },
    "V": {
        "name": "Vanadium",
        "symbol": "V",
        "atomic_number": 23,
        "atomic_mass": 50.9415,
        "electron_configuration": "[Ar] 3d3 4s2",
        "phase": "Solid",
        "category": "Transition Metal",
        "density": 6.11,
        "melting_point": 2183,
        "boiling_point": 3680,
        "discovery_year": 1801,
        "uses": "Used in steel alloys to increase strength and in batteries."
    },
    "Cr": {
        "name": "Chromium",
        "symbol": "Cr",
        "atomic_number": 24,
        "atomic_mass": 51.9961,
        "electron_configuration": "[Ar] 3d5 4s1",
        "phase": "Solid",
        "category": "Transition Metal",
        "density": 7.19,
        "melting_point": 2180,
        "boiling_point": 2944,
        "discovery_year": 1797,
        "uses": "Used in stainless steel, chrome plating, and pigments."
    },
    "Mn": {
        "name": "Manganese",
        "symbol": "Mn",
        "atomic_number": 25,
        "atomic_mass": 54.938044,
        "electron_configuration": "[Ar] 3d5 4s2",
        "phase": "Solid",
        "category": "Transition Metal",
        "density": 7.21,
        "melting_point": 1519,
        "boiling_point": 2334,
        "discovery_year": 1774,
        "uses": "Used in steel production, batteries, and ceramics."
    },
    "Fe": {
        "name": "Iron",
        "symbol": "Fe",
        "atomic_number": 26,
        "atomic_mass": 55.845,
        "electron_configuration": "[Ar] 3d6 4s2",
        "phase": "Solid",
        "category": "Transition Metal",
        "density": 7.874,
        "melting_point": 1811,
        "boiling_point": 3134,
        "discovery_year": "Ancient",
        "uses": "Used in construction, manufacturing, and tools."
    },
    "Co": {
        "name": "Cobalt",
        "symbol": "Co",
        "atomic_number": 27,
        "atomic_mass": 58.933194,
        "electron_configuration": "[Ar] 3d7 4s2",
        "phase": "Solid",
        "category": "Transition Metal",
        "density": 8.90,
        "melting_point": 1768,
        "boiling_point": 3200,
        "discovery_year": 1735,
        "uses": "Used in batteries, alloys, and pigments."
    },
    "Ni": {
        "name": "Nickel",
        "symbol": "Ni",
        "atomic_number": 28,
        "atomic_mass": 58.6934,
        "electron_configuration": "[Ar] 3d8 4s2",
        "phase": "Solid",
        "category": "Transition Metal",
        "density": 8.908,
        "melting_point": 1728,
        "boiling_point": 3186,
        "discovery_year": 1751,
        "uses": "Used in stainless steel, coins, and batteries."
    },
    "Cu": {
        "name": "Copper",
        "symbol": "Cu",
        "atomic_number": 29,
        "atomic_mass": 63.546,
        "electron_configuration": "[Ar] 3d10 4s1",
        "phase": "Solid",
        "category": "Transition Metal",
        "density": 8.96,
        "melting_point": 1357.77,
        "boiling_point": 2835,
        "discovery_year": "Ancient",
        "uses": "Used in electrical wiring, plumbing, and coins."
    },
    "Zn": {
        "name": "Zinc",
        "symbol": "Zn",
        "atomic_number": 30,
        "atomic_mass": 65.38,
        "electron_configuration": "[Ar] 3d10 4s2",
        "phase": "Solid",
        "category": "Transition Metal",
        "density": 7.134,
        "melting_point": 692.68,
        "boiling_point": 1180,
        "discovery_year": "Ancient",
        "uses": "Used in galvanizing, batteries, and alloys."
    },
    "Ga": {
        "name": "Gallium",
        "symbol": "Ga",
        "atomic_number": 31,
        "atomic_mass": 69.723,
        "electron_configuration": "[Ar] 3d10 4s2 4p1",
        "phase": "Solid",
        "category": "Post-Transition Metal",
        "density": 5.91,
        "melting_point": 302.9146,
        "boiling_point": 2477,
        "discovery_year": 1875,
        "uses": "Used in semiconductors, LEDs, and thermometers."
    },
    "Ge": {
        "name": "Germanium",
        "symbol": "Ge",
        "atomic_number": 32,
        "atomic_mass": 72.63,
        "electron_configuration": "[Ar] 3d10 4s2 4p2",
        "phase": "Solid",
        "category": "Metalloid",
        "density": 5.323,
        "melting_point": 1211.40,
        "boiling_point": 3106,
        "discovery_year": 1886,
        "uses": "Used in semiconductors, fiber optics, and infrared optics."
    },
    "As": {
        "name": "Arsenic",
        "symbol": "As",
        "atomic_number": 33,
        "atomic_mass": 74.92160,
        "electron_configuration": "[Ar] 3d10 4s2 4p3",
        "phase": "Solid",
        "category": "Metalloid",
        "density": 5.776,
        "melting_point": 1090,
        "boiling_point": 887,
        "discovery_year": "Ancient",
        "uses": "Used in pesticides, herbicides, and semiconductors."
    },
    "Se": {
        "name": "Selenium",
        "symbol": "Se",
        "atomic_number": 34,
        "atomic_mass": 78.96,
        "electron_configuration": "[Ar] 3d10 4s2 4p4",
        "phase": "Solid",
        "category": "Nonmetal",
        "density": 4.81,
        "melting_point": 494,
        "boiling_point": 958,
        "discovery_year": 1817,
        "uses": "Used in glassmaking, pigments, and photocells."
    },
    "Br": {
        "name": "Bromine",
        "symbol": "Br",
        "atomic_number": 35,
        "atomic_mass": 79.904,
        "electron_configuration": "[Ar] 3d10 4s2 4p5",
        "phase": "Liquid",
        "category": "Halogen",
        "density": 3.1028,
        "melting_point": 265.8,
        "boiling_point": 332.0,
        "discovery_year": 1826,
        "uses": "Used in flame retardants, photography, and water treatment."
    },
    "Kr": {
        "name": "Krypton",
        "symbol": "Kr",
        "atomic_number": 36,
        "atomic_mass": 83.798,
        "electron_configuration": "[Ar] 3d10 4s2 4p6",
        "phase": "Gas",
        "category": "Noble Gas",
        "density": 0.003733,
        "melting_point": 115.79,
        "boiling_point": 119.93,
        "discovery_year": 1898,
        "uses": "Used in lighting and photography."
    },
    "Rb": {
        "name": "Rubidium",
        "symbol": "Rb",
        "atomic_number": 37,
        "atomic_mass": 85.4678,
        "electron_configuration": "[Kr] 5s1",
        "phase": "Solid",
        "category": "Alkali Metal",
        "density": 1.532,
        "melting_point": 312.46,
        "boiling_point": 961,
        "discovery_year": 1861,
        "uses": "Used in research and in atomic clocks."
    },
    "Sr": {
        "name": "Strontium",
        "symbol": "Sr",
        "atomic_number": 38,
        "atomic_mass": 87.62,
        "electron_configuration": "[Kr] 5s2",
        "phase": "Solid",
        "category": "Alkaline Earth Metal",
        "density": 2.64,
        "melting_point": 1050,
        "boiling_point": 1655,
        "discovery_year": 1790,
        "uses": "Used in fireworks and in medical imaging."
    },
    "Y": {
        "name": "Yttrium",
        "symbol": "Y",
        "atomic_number": 39,
        "atomic_mass": 88.90584,
        "electron_configuration": "[Kr] 4d1 5s2",
        "phase": "Solid",
        "category": "Transition Metal",
        "density": 4.472,
        "melting_point": 1799,
        "boiling_point": 3609,
        "discovery_year": 1794,
        "uses": "Used in LEDs and phosphors."
    },
    "Zr": {
        "name": "Zirconium",
        "symbol": "Zr",
        "atomic_number": 40,
        "atomic_mass": 91.224,
        "electron_configuration": "[Kr] 4d2 5s2",
        "phase": "Solid",
        "category": "Transition Metal",
        "density": 6.52,
        "melting_point": 2128,
        "boiling_point": 4682,
        "discovery_year": 1789,
        "uses": "Used in nuclear reactors and in corrosion-resistant alloys."
    },
    "Nb": {
        "name": "Niobium",
        "symbol": "Nb",
        "atomic_number": 41,
        "atomic_mass": 92.90637,
        "electron_configuration": "[Kr] 4d4 5s1",
        "phase": "Solid",
        "category": "Transition Metal",
        "density": 8.57,
        "melting_point": 2750,
        "boiling_point": 5017,
        "discovery_year": 1801,
        "uses": "Used in steel alloys and superconductors."
    },
    "Mo": {
        "name": "Molybdenum",
        "symbol": "Mo",
        "atomic_number": 42,
        "atomic_mass": 95.95,
        "electron_configuration": "[Kr] 4d5 5s1",
        "phase": "Solid",
        "category": "Transition Metal",
        "density": 10.28,
        "melting_point": 2896,
        "boiling_point": 4912,
        "discovery_year": 1781,
        "uses": "Used in steel alloys and as a catalyst."
    },
    "Tc": {
        "name": "Technetium",
        "symbol": "Tc",
        "atomic_number": 43,
        "atomic_mass": 98,
        "electron_configuration": "[Kr] 4d5 5s2",
        "phase": "Solid",
        "category": "Transition Metal",
        "density": 11,
        "melting_point": 2430,
        "boiling_point": 4538,
        "discovery_year": 1937,
        "uses": "Used in medical diagnostic procedures."
    },
    "Ru": {
        "name": "Ruthenium",
        "symbol": "Ru",
        "atomic_number": 44,
        "atomic_mass": 101.07,
        "electron_configuration": "[Kr] 4d7 5s1",
        "phase": "Solid",
        "category": "Transition Metal",
        "density": 12.37,
        "melting_point": 2607,
        "boiling_point": 4423,
        "discovery_year": 1844,
        "uses": "Used in electrical contacts and as a catalyst."
    },
    "Rh": {
        "name": "Rhodium",
        "symbol": "Rh",
        "atomic_number": 45,
        "atomic_mass": 102.90550,
        "electron_configuration": "[Kr] 4d8 5s1",
        "phase": "Solid",
        "category": "Transition Metal",
        "density": 12.41,
        "melting_point": 2237,
        "boiling_point": 3968,
        "discovery_year": 1803,
        "uses": "Used in catalytic converters and jewelry."
    },
    "Pd": {
        "name": "Palladium",
        "symbol": "Pd",
        "atomic_number": 46,
        "atomic_mass": 106.42,
        "electron_configuration": "[Kr] 4d10",
        "phase": "Solid",
        "category": "Transition Metal",
        "density": 12.02,
        "melting_point": 1828.05,
        "boiling_point": 3236,
        "discovery_year": 1803,
        "uses": "Used in catalytic converters, electronics, and jewelry."
    },
    "Ag": {
        "name": "Silver",
        "symbol": "Ag",
        "atomic_number": 47,
        "atomic_mass": 107.8682,
        "electron_configuration": "[Kr] 4d10 5s1",
        "phase": "Solid",
        "category": "Transition Metal",
        "density": 10.49,
        "melting_point": 1234.93,
        "boiling_point": 2435,
        "discovery_year": "Ancient",
        "uses": "Used in jewelry, coins, electronics, and photography."
    },
    "Cd": {
        "name": "Cadmium",
        "symbol": "Cd",
        "atomic_number": 48,
        "atomic_mass": 112.414,
        "electron_configuration": "[Kr] 4d10 5s2",
        "phase": "Solid",
        "category": "Transition Metal",
        "density": 8.65,
        "melting_point": 594.22,
        "boiling_point": 1040,
        "discovery_year": 1817,
        "uses": "Used in batteries, pigments, and coatings."
    },
    "In": {
        "name": "Indium",
        "symbol": "In",
        "atomic_number": 49,
        "atomic_mass": 114.818,
        "electron_configuration": "[Kr] 4d10 5s2 5p1",
        "phase": "Solid",
        "category": "Post-Transition Metal",
        "density": 7.31,
        "melting_point": 429.75,
        "boiling_point": 2345,
        "discovery_year": 1863,
        "uses": "Used in semiconductors, LCDs, and solders."
    },
    "Sn": {
        "name": "Tin",
        "symbol": "Sn",
        "atomic_number": 50,
        "atomic_mass": 118.710,
        "electron_configuration": "[Kr] 4d10 5s2 5p2",
        "phase": "Solid",
        "category": "Post-Transition Metal",
        "density": 7.287,
        "melting_point": 505.08,
        "boiling_point": 2875,
        "discovery_year": "Ancient",
        "uses": "Used in solder, coatings, and alloys."
    },
    "Sb": {
        "name": "Antimony",
        "symbol": "Sb",
        "atomic_number": 51,
        "atomic_mass": 121.760,
        "electron_configuration": "[Kr] 4d10 5s2 5p3",
        "phase": "Solid",
        "category": "Metalloid",
        "density": 6.685,
        "melting_point": 903.78,
        "boiling_point": 1860,
        "discovery_year": "Ancient",
        "uses": "Used in flame retardants, alloys, and semiconductors."
    },
    "Te": {
        "name": "Tellurium",
        "symbol": "Te",
        "atomic_number": 52,
        "atomic_mass": 127.60,
        "electron_configuration": "[Kr] 4d10 5s2 5p4",
        "phase": "Solid",
        "category": "Metalloid",
        "density": 6.24,
        "melting_point": 722.66,
        "boiling_point": 1261,
        "discovery_year": 1782,
        "uses": "Used in thermoelectric devices, metallurgy, and electronics."
    },
    "I": {
        "name": "Iodine",
        "symbol": "I",
        "atomic_number": 53,
        "atomic_mass": 126.90447,
        "electron_configuration": "[Kr] 4d10 5s2 5p5",
        "phase": "Solid",
        "category": "Halogen",
        "density": 4.93,
        "melting_point": 386.85,
        "boiling_point": 457.4,
        "discovery_year": 1811,
        "uses": "Used in disinfectants, pharmaceuticals, and photography."
    },
    "Xe": {
        "name": "Xenon",
        "symbol": "Xe",
        "atomic_number": 54,
        "atomic_mass": 131.293,
        "electron_configuration": "[Kr] 4d10 5s2 5p6",
        "phase": "Gas",
        "category": "Noble Gas",
        "density": 0.005887,
        "melting_point": 161.4,
        "boiling_point": 165.1,
        "discovery_year": 1898,
        "uses": "Used in lighting, anesthesia, and ion propulsion systems."
    },
    "Cs": {
        "name": "Cesium",
        "symbol": "Cs",
        "atomic_number": 55,
        "atomic_mass": 132.90545196,
        "electron_configuration": "[Xe] 6s1",
        "phase": "Solid",
        "category": "Alkali Metal",
        "density": 1.93,
        "melting_point": 301.7,
        "boiling_point": 944,
        "discovery_year": 1860,
        "uses": "Used in atomic clocks, electronics, and drilling fluids."
    },
}
